      -----------------------------------------------------------      
     |                   =====================                   |     
     |                           x T B                           |     
     |                   =====================                   |     
     |                         S. Grimme                         |     
     |          Mulliken Center for Theoretical Chemistry        |     
     |                    University of Bonn                     |     
      -----------------------------------------------------------      

   * xtb version 6.5.1 (e96fa64) compiled by 'fpultar@gabon' on 2022-11-17

   xtb is free software: you can redistribute it and/or modify it under
   the terms of the GNU Lesser General Public License as published by
   the Free Software Foundation, either version 3 of the License, or
   (at your option) any later version.
   
   xtb is distributed in the hope that it will be useful,
   but WITHOUT ANY WARRANTY; without even the implied warranty of
   MERCHANTABILITY or FITNESS FOR A PARTICULAR PURPOSE.  See the
   GNU Lesser General Public License for more details.
   
   Cite this work as:
   * C. Bannwarth, E. Caldeweyher, S. Ehlert, A. Hansen, P. Pracht,
     J. Seibert, S. Spicher, S. Grimme, WIREs Comput. Mol. Sci., 2020, 11,
     e01493. DOI: 10.1002/wcms.1493
   
   for GFN2-xTB:
   * C. Bannwarth, S. Ehlert and S. Grimme., J. Chem. Theory Comput., 2019,
     15, 1652-1671. DOI: 10.1021/acs.jctc.8b01176
   for GFN1-xTB:
   * S. Grimme, C. Bannwarth, P. Shushkov, J. Chem. Theory Comput., 2017,
     13, 1989-2009. DOI: 10.1021/acs.jctc.7b00118
   for GFN0-xTB:
   * P. Pracht, E. Caldeweyher, S. Ehlert, S. Grimme, ChemRxiv, 2019, preprint.
     DOI: 10.26434/chemrxiv.8326202.v1
   for GFN-FF:
   * S. Spicher and S. Grimme, Angew. Chem. Int. Ed., 2020, 59, 15665-15673.
     DOI: 10.1002/anie.202004239
   
   for ALPB and GBSA implicit solvation:
   * S. Ehlert, M. Stahn, S. Spicher, S. Grimme, J. Chem. Theory Comput.,
     2021, 17, 4250-4261. DOI: 10.1021/acs.jctc.1c00471
   
   for DFT-D4:
   * E. Caldeweyher, C. Bannwarth and S. Grimme, J. Chem. Phys., 2017,
     147, 034112. DOI: 10.1063/1.4993215
   * E. Caldeweyher, S. Ehlert, A. Hansen, H. Neugebauer, S. Spicher,
     C. Bannwarth and S. Grimme, J. Chem. Phys., 2019, 150, 154122.
     DOI: 10.1063/1.5090222
   * E. Caldeweyher, J.-M. Mewes, S. Ehlert and S. Grimme, Phys. Chem. Chem. Phys.
     2020, 22, 8499-8512. DOI: 10.1039/D0CP00502A
   
   for sTDA-xTB:
   * S. Grimme and C. Bannwarth, J. Chem. Phys., 2016, 145, 054103.
     DOI: 10.1063/1.4959605
   
   in the mass-spec context:
   * V. Asgeirsson, C. Bauer and S. Grimme, Chem. Sci., 2017, 8, 4879.
     DOI: 10.1039/c7sc00601b
   * J. Koopman and S. Grimme, ACS Omega 2019, 4, 12, 15120-15133.
     DOI: 10.1021/acsomega.9b02011
   
   for metadynamics refer to:
   * S. Grimme, J. Chem. Theory Comput., 2019, 155, 2847-2862
     DOI: 10.1021/acs.jctc.9b00143
   
   for SPH calculations refer to:
   * S. Spicher and S. Grimme, J. Chem. Theory Comput., 2021, 17, 1701-1714
     DOI: 10.1021/acs.jctc.0c01306
   
   with help from (in alphabetical order)
   P. Atkinson, C. Bannwarth, F. Bohle, G. Brandenburg, E. Caldeweyher
   M. Checinski, S. Dohm, S. Ehlert, S. Ehrlich, I. Gerasimov, C. Hölzer
   A. Katbashev, J. Koopman, C. Lavigne, S. Lehtola, F. März, M. Müller,
   F. Musil, H. Neugebauer, J. Pisarek, C. Plett, P. Pracht, F. Pultar,
   J. Seibert, P. Shushkov, S. Spicher, M. Stahn, M. Steiner, T. Strunk,
   J. Stückrath, T. Rose, and J. Unsleber
   
 * started run on 2022/11/17 at 10:44:20.158     

           -------------------------------------------------
          |                Calculation Setup                |
           -------------------------------------------------

          program call               : xtb water_4.coord --iterations 30 --acc 1.0 --etemp 300 --gfn 2 --grad
          coordinate file            : water_4.coord
          omp threads                :                    16

   ID    Z sym.   atoms
    1    8 O      1, 4, 7, 10
    2    1 H      2, 3, 5, 6, 8, 9, 11, 12

molecular fragmentation (1/2 indicates fragments):
111222222222
# atoms in fragment 1/2:     3     9
 fragment masses (1/2) :       18.02       54.05
CMA distance (Bohr)    :   4.898
constraining FC (au)   :  0.0500

           -------------------------------------------------
          |                 G F N 2 - x T B                 |
           -------------------------------------------------

        Reference                      10.1021/acs.jctc.8b01176
      * Hamiltonian:
        H0-scaling (s, p, d)           1.850000    2.230000    2.230000
        zeta-weighting                 0.500000
      * Dispersion:
        s8                             2.700000
        a1                             0.520000
        a2                             5.000000
        s9                             5.000000
      * Repulsion:
        kExp                           1.500000    1.000000
        rExp                           1.000000
      * Coulomb:
        alpha                          2.000000
        third order                    shell-resolved
        anisotropic                    true
        a3                             3.000000
        a5                             4.000000
        cn-shift                       1.200000
        cn-exp                         4.000000
        max-rad                        5.000000


          ...................................................
          :                      SETUP                      :
          :.................................................:
          :  # basis functions                  24          :
          :  # atomic orbitals                  24          :
          :  # shells                           16          :
          :  # electrons                        32          :
          :  max. iterations                    30          :
          :  Hamiltonian                  GFN2-xTB          :
          :  restarted?                      false          :
          :  GBSA solvation                  false          :
          :  PC potential                    false          :
          :  electronic temp.          300.0000000     K    :
          :  accuracy                    1.0000000          :
          :  -> integral cutoff          0.2500000E+02      :
          :  -> integral neglect         0.1000000E-07      :
          :  -> SCF convergence          0.1000000E-05 Eh   :
          :  -> wf. convergence          0.1000000E-03 e    :
          :  Broyden damping             0.4000000          :
          ...................................................

 iter      E             dE          RMSdq      gap      omega  full diag
   1    -20.4447739 -0.204448E+02  0.407E+00   12.54       0.0  T
   2    -20.4467563 -0.198243E-02  0.240E+00   12.42       1.0  T
   3    -20.4473691 -0.612735E-03  0.263E-01   12.31       1.0  T
   4    -20.4474922 -0.123097E-03  0.803E-02   12.42       1.0  T
   5    -20.4475061 -0.139559E-04  0.430E-02   12.38       1.0  T
   6    -20.4475086 -0.247208E-05  0.385E-03   12.39       7.5  T
   7    -20.4475086 -0.263116E-07  0.148E-03   12.39      19.6  T
   8    -20.4475086 -0.402904E-08  0.195E-04   12.39     148.1  T
   9    -20.4475086 -0.710401E-10  0.134E-05   12.39    2152.6  T

   *** convergence criteria satisfied after 9 iterations ***

         #    Occupation            Energy/Eh            Energy/eV
      -------------------------------------------------------------
         1        2.0000           -0.6712557             -18.2658
       ...           ...                  ...                  ...
        10        2.0000           -0.5053864             -13.7523
        11        2.0000           -0.5053864             -13.7523
        12        2.0000           -0.4897293             -13.3262
        13        2.0000           -0.4380922             -11.9211
        14        2.0000           -0.4374875             -11.9046
        15        2.0000           -0.4374875             -11.9046
        16        2.0000           -0.4358335             -11.8596 (HOMO)
        17                          0.0195327               0.5315 (LUMO)
        18                          0.0998491               2.7170
        19                          0.0998491               2.7170
        20                          0.1680077               4.5717
        21                          0.2796903               7.6108
       ...                                ...                  ...
        24                          0.2979677               8.1081
      -------------------------------------------------------------
                  HL-Gap            0.4553662 Eh           12.3911 eV
             Fermi-level           -0.2081504 Eh           -5.6641 eV

 SCC (total)                   0 d,  0 h,  0 min,  0.683 sec
 SCC setup                      ...        0 min,  0.000 sec (  0.008%)
 Dispersion                     ...        0 min,  0.010 sec (  1.494%)
 classical contributions        ...        0 min,  0.000 sec (  0.021%)
 integral evaluation            ...        0 min,  0.052 sec (  7.627%)
 iterations                     ...        0 min,  0.550 sec ( 80.473%)
 molecular gradient             ...        0 min,  0.071 sec ( 10.367%)
 printout                       ...        0 min,  0.000 sec (  0.008%)

         :::::::::::::::::::::::::::::::::::::::::::::::::::::
         ::                     SUMMARY                     ::
         :::::::::::::::::::::::::::::::::::::::::::::::::::::
         :: total energy             -20.323978512118 Eh    ::
         :: gradient norm              0.007811924008 Eh/a0 ::
         :: HOMO-LUMO gap             12.391144584175 eV    ::
         ::.................................................::
         :: SCC energy               -20.447508639853 Eh    ::
         :: -> isotropic ES            0.123131863441 Eh    ::
         :: -> anisotropic ES         -0.014707012658 Eh    ::
         :: -> anisotropic XC         -0.002914988964 Eh    ::
         :: -> dispersion             -0.003239799782 Eh    ::
         :: repulsion energy           0.123518385844 Eh    ::
         :: add. restraining           0.000000000000 Eh    ::
         :: total charge               0.000000000000 e     ::
         :::::::::::::::::::::::::::::::::::::::::::::::::::::

           -------------------------------------------------
          |                Property Printout                |
           -------------------------------------------------

    * Orbital Energies and Occupations

         #    Occupation            Energy/Eh            Energy/eV
      -------------------------------------------------------------
         1        2.0000           -0.6712557             -18.2658
       ...           ...                  ...                  ...
         4        2.0000           -0.6693794             -18.2147
         5        2.0000           -0.5653668             -15.3844
         6        2.0000           -0.5578060             -15.1787
         7        2.0000           -0.5578060             -15.1787
         8        2.0000           -0.5513723             -15.0036
         9        2.0000           -0.5242035             -14.2643
        10        2.0000           -0.5053864             -13.7523
        11        2.0000           -0.5053864             -13.7523
        12        2.0000           -0.4897293             -13.3262
        13        2.0000           -0.4380922             -11.9211
        14        2.0000           -0.4374875             -11.9046
        15        2.0000           -0.4374875             -11.9046
        16        2.0000           -0.4358335             -11.8596 (HOMO)
        17                          0.0195327               0.5315 (LUMO)
        18                          0.0998491               2.7170
        19                          0.0998491               2.7170
        20                          0.1680077               4.5717
        21                          0.2796903               7.6108
        22                          0.2916103               7.9351
        23                          0.2916103               7.9351
        24                          0.2979677               8.1081
      -------------------------------------------------------------
                  HL-Gap            0.4553662 Eh           12.3911 eV
             Fermi-level           -0.2081504 Eh           -5.6641 eV

     #   Z          covCN         q      C6AA      α(0)
     1   8 O        1.608    -0.604    25.288     6.787
     2   1 H        0.802     0.326     0.648     1.265
     3   1 H        0.805     0.278     0.791     1.397
     4   8 O        1.608    -0.604    25.288     6.787
     5   1 H        0.802     0.326     0.648     1.265
     6   1 H        0.805     0.278     0.791     1.397
     7   8 O        1.608    -0.604    25.288     6.787
     8   1 H        0.802     0.326     0.648     1.265
     9   1 H        0.805     0.278     0.791     1.397
    10   8 O        1.608    -0.604    25.288     6.787
    11   1 H        0.802     0.326     0.648     1.265
    12   1 H        0.805     0.278     0.791     1.397

 Mol. C6AA /au·bohr⁶  :        718.074089
 Mol. C8AA /au·bohr⁸  :      12899.105154
 Mol. α(0) /au        :         37.792721


Wiberg/Mayer (AO) data.
largest (>0.10) Wiberg bond orders for each atom

 ---------------------------------------------------------------------------
     #   Z sym  total        # sym  WBO       # sym  WBO       # sym  WBO
 ---------------------------------------------------------------------------
     1   8 O    1.863 --     3 H    0.920     2 H    0.841
     2   1 H    0.894 --     1 O    0.841
     3   1 H    0.923 --     1 O    0.920
     4   8 O    1.863 --     6 H    0.920     5 H    0.841
     5   1 H    0.894 --     4 O    0.841
     6   1 H    0.923 --     4 O    0.920
     7   8 O    1.863 --     9 H    0.920     8 H    0.841
     8   1 H    0.894 --     7 O    0.841
     9   1 H    0.923 --     7 O    0.920
    10   8 O    1.863 --    12 H    0.920    11 H    0.841
    11   1 H    0.894 --    10 O    0.841
    12   1 H    0.923 --    10 O    0.920
 ---------------------------------------------------------------------------

Topologies differ in total number of bonds
Writing topology from bond orders to xtbtopo.mol

molecular dipole:
                 x           y           z       tot (Debye)
 q only:        0.000       0.000       0.000
   full:        0.000       0.000       0.000       0.000
molecular quadrupole (traceless):
                xx          xy          yy          xz          yz          zz
 q only:       -0.116      -0.000      -0.116      -0.000      -0.000       0.232
  q+dip:        0.047      -0.000       0.047      -0.000      -0.000      -0.095
   full:        0.046      -0.000       0.046      -0.000      -0.000      -0.092


           -------------------------------------------------
          | TOTAL ENERGY              -20.323978512118 Eh   |
          | GRADIENT NORM               0.007811924008 Eh/α |
          | HOMO-LUMO GAP              12.391144584175 eV   |
           -------------------------------------------------

------------------------------------------------------------------------
 * finished run on 2022/11/17 at 10:44:20.933     
------------------------------------------------------------------------
 total:
 * wall-time:     0 d,  0 h,  0 min,  0.775 sec
 *  cpu-time:     0 d,  0 h,  0 min, 12.342 sec
 * ratio c/w:    15.927 speedup
 SCF:
 * wall-time:     0 d,  0 h,  0 min,  0.683 sec
 *  cpu-time:     0 d,  0 h,  0 min, 10.894 sec
 * ratio c/w:    15.943 speedup

