      -----------------------------------------------------------      
     |                   =====================                   |     
     |                           x T B                           |     
     |                   =====================                   |     
     |                         S. Grimme                         |     
     |          Mulliken Center for Theoretical Chemistry        |     
     |                    University of Bonn                     |     
      -----------------------------------------------------------      

   * xtb version 6.5.1 (e96fa64) compiled by 'fpultar@gabon' on 2022-11-17

   xtb is free software: you can redistribute it and/or modify it under
   the terms of the GNU Lesser General Public License as published by
   the Free Software Foundation, either version 3 of the License, or
   (at your option) any later version.
   
   xtb is distributed in the hope that it will be useful,
   but WITHOUT ANY WARRANTY; without even the implied warranty of
   MERCHANTABILITY or FITNESS FOR A PARTICULAR PURPOSE.  See the
   GNU Lesser General Public License for more details.
   
   Cite this work as:
   * C. Bannwarth, E. Caldeweyher, S. Ehlert, A. Hansen, P. Pracht,
     J. Seibert, S. Spicher, S. Grimme, WIREs Comput. Mol. Sci., 2020, 11,
     e01493. DOI: 10.1002/wcms.1493
   
   for GFN2-xTB:
   * C. Bannwarth, S. Ehlert and S. Grimme., J. Chem. Theory Comput., 2019,
     15, 1652-1671. DOI: 10.1021/acs.jctc.8b01176
   for GFN1-xTB:
   * S. Grimme, C. Bannwarth, P. Shushkov, J. Chem. Theory Comput., 2017,
     13, 1989-2009. DOI: 10.1021/acs.jctc.7b00118
   for GFN0-xTB:
   * P. Pracht, E. Caldeweyher, S. Ehlert, S. Grimme, ChemRxiv, 2019, preprint.
     DOI: 10.26434/chemrxiv.8326202.v1
   for GFN-FF:
   * S. Spicher and S. Grimme, Angew. Chem. Int. Ed., 2020, 59, 15665-15673.
     DOI: 10.1002/anie.202004239
   
   for ALPB and GBSA implicit solvation:
   * S. Ehlert, M. Stahn, S. Spicher, S. Grimme, J. Chem. Theory Comput.,
     2021, 17, 4250-4261. DOI: 10.1021/acs.jctc.1c00471
   
   for DFT-D4:
   * E. Caldeweyher, C. Bannwarth and S. Grimme, J. Chem. Phys., 2017,
     147, 034112. DOI: 10.1063/1.4993215
   * E. Caldeweyher, S. Ehlert, A. Hansen, H. Neugebauer, S. Spicher,
     C. Bannwarth and S. Grimme, J. Chem. Phys., 2019, 150, 154122.
     DOI: 10.1063/1.5090222
   * E. Caldeweyher, J.-M. Mewes, S. Ehlert and S. Grimme, Phys. Chem. Chem. Phys.
     2020, 22, 8499-8512. DOI: 10.1039/D0CP00502A
   
   for sTDA-xTB:
   * S. Grimme and C. Bannwarth, J. Chem. Phys., 2016, 145, 054103.
     DOI: 10.1063/1.4959605
   
   in the mass-spec context:
   * V. Asgeirsson, C. Bauer and S. Grimme, Chem. Sci., 2017, 8, 4879.
     DOI: 10.1039/c7sc00601b
   * J. Koopman and S. Grimme, ACS Omega 2019, 4, 12, 15120-15133.
     DOI: 10.1021/acsomega.9b02011
   
   for metadynamics refer to:
   * S. Grimme, J. Chem. Theory Comput., 2019, 155, 2847-2862
     DOI: 10.1021/acs.jctc.9b00143
   
   for SPH calculations refer to:
   * S. Spicher and S. Grimme, J. Chem. Theory Comput., 2021, 17, 1701-1714
     DOI: 10.1021/acs.jctc.0c01306
   
   with help from (in alphabetical order)
   P. Atkinson, C. Bannwarth, F. Bohle, G. Brandenburg, E. Caldeweyher
   M. Checinski, S. Dohm, S. Ehlert, S. Ehrlich, I. Gerasimov, C. Hölzer
   A. Katbashev, J. Koopman, C. Lavigne, S. Lehtola, F. März, M. Müller,
   F. Musil, H. Neugebauer, J. Pisarek, C. Plett, P. Pracht, F. Pultar,
   J. Seibert, P. Shushkov, S. Spicher, M. Stahn, M. Steiner, T. Strunk,
   J. Stückrath, T. Rose, and J. Unsleber
   
 * started run on 2022/11/17 at 10:28:23.605     

           -------------------------------------------------
          |                Calculation Setup                |
           -------------------------------------------------

          program call               : xtb water_4.coord -I pcem.input --iterations 30 --acc 1.0 --etemp 300 --gfn 2 --grad
          coordinate file            : water_4.coord
          omp threads                :                    16

   ID    Z sym.   atoms
    1    8 O      1, 4
    2    1 H      2, 3, 5, 6

molecular fragmentation (1/2 indicates fragments):
111222
# atoms in fragment 1/2:     3     3
 fragment masses (1/2) :       18.02       18.02
CMA distance (Bohr)    :   5.196
constraining FC (au)   :  0.0500

           -------------------------------------------------
          |                 G F N 2 - x T B                 |
           -------------------------------------------------

        Reference                      10.1021/acs.jctc.8b01176
      * Hamiltonian:
        H0-scaling (s, p, d)           1.850000    2.230000    2.230000
        zeta-weighting                 0.500000
      * Dispersion:
        s8                             2.700000
        a1                             0.520000
        a2                             5.000000
        s9                             5.000000
      * Repulsion:
        kExp                           1.500000    1.000000
        rExp                           1.000000
      * Coulomb:
        alpha                          2.000000
        third order                    shell-resolved
        anisotropic                    true
        a3                             3.000000
        a5                             4.000000
        cn-shift                       1.200000
        cn-exp                         4.000000
        max-rad                        5.000000


          ...................................................
          :                      SETUP                      :
          :.................................................:
          :  # basis functions                  12          :
          :  # atomic orbitals                  12          :
          :  # shells                            8          :
          :  # electrons                        16          :
          :  max. iterations                    30          :
          :  Hamiltonian                  GFN2-xTB          :
          :  restarted?                      false          :
          :  GBSA solvation                  false          :
          :  PC potential                     true          :
          :  -> # point charges                  6          :
          :  -> sum of PC                0.0000000     e    :
          :  electronic temp.          300.0000000     K    :
          :  accuracy                    1.0000000          :
          :  -> integral cutoff          0.2500000E+02      :
          :  -> integral neglect         0.1000000E-07      :
          :  -> SCF convergence          0.1000000E-05 Eh   :
          :  -> wf. convergence          0.1000000E-03 e    :
          :  Broyden damping             0.4000000          :
          ...................................................

 iter      E             dE          RMSdq      gap      omega  full diag
   1    -10.2141283 -0.102141E+02  0.418E+00   13.25       0.0  T
   2    -10.2169842 -0.285597E-02  0.241E+00   13.15       1.0  T
   3    -10.2175075 -0.523314E-03  0.392E-01   12.35       1.0  T
   4    -10.2176392 -0.131616E-03  0.871E-02   12.57       1.0  T
   5    -10.2176471 -0.790990E-05  0.417E-02   12.50       1.0  T
   6    -10.2176488 -0.172257E-05  0.237E-03   12.52      17.3  T
   7    -10.2176488 -0.524714E-08  0.835E-04   12.52      48.9  T
   8    -10.2176488  0.134850E-09  0.623E-04   12.52      65.5  T

   *** convergence criteria satisfied after 8 iterations ***

         #    Occupation            Energy/Eh            Energy/eV
      -------------------------------------------------------------
         1        2.0000           -0.6907065             -18.7951
         2        2.0000           -0.6589168             -17.9300
         3        2.0000           -0.5769186             -15.6988
         4        2.0000           -0.5510921             -14.9960
         5        2.0000           -0.5249075             -14.2835
         6        2.0000           -0.4930116             -13.4155
         7        2.0000           -0.4541781             -12.3588
         8        2.0000           -0.4253905             -11.5755 (HOMO)
         9                          0.0347473               0.9455 (LUMO)
        10                          0.1313322               3.5737
        11                          0.2196754               5.9777
        12                          0.2921664               7.9503
      -------------------------------------------------------------
                  HL-Gap            0.4601378 Eh           12.5210 eV
             Fermi-level           -0.1953216 Eh           -5.3150 eV

 SCC (total)                   0 d,  0 h,  0 min,  0.629 sec
 SCC setup                      ...        0 min,  0.009 sec (  1.424%)
 Dispersion                     ...        0 min,  0.007 sec (  1.041%)
 classical contributions        ...        0 min,  0.000 sec (  0.024%)
 integral evaluation            ...        0 min,  0.055 sec (  8.716%)
 iterations                     ...        0 min,  0.487 sec ( 77.525%)
 molecular gradient             ...        0 min,  0.071 sec ( 11.261%)
 printout                       ...        0 min,  0.000 sec (  0.007%)

         :::::::::::::::::::::::::::::::::::::::::::::::::::::
         ::                     SUMMARY                     ::
         :::::::::::::::::::::::::::::::::::::::::::::::::::::
         :: total energy             -10.155934021424 Eh    ::
         :: gradient norm              0.024959693923 Eh/a0 ::
         :: HOMO-LUMO gap             12.520985724004 eV    ::
         ::.................................................::
         :: SCC energy               -10.217648797005 Eh    ::
         :: -> isotropic ES            0.066792092803 Eh    ::
         :: -> anisotropic ES         -0.002669047494 Eh    ::
         :: -> anisotropic XC         -0.001310421606 Eh    ::
         :: -> dispersion             -0.000808233317 Eh    ::
         :: repulsion energy           0.061714760838 Eh    ::
         :: add. restraining           0.000000000000 Eh    ::
         :: total charge               0.000000000000 e     ::
         :::::::::::::::::::::::::::::::::::::::::::::::::::::

           -------------------------------------------------
          |                Property Printout                |
           -------------------------------------------------

    * Orbital Energies and Occupations

         #    Occupation            Energy/Eh            Energy/eV
      -------------------------------------------------------------
         1        2.0000           -0.6907065             -18.7951
         2        2.0000           -0.6589168             -17.9300
         3        2.0000           -0.5769186             -15.6988
         4        2.0000           -0.5510921             -14.9960
         5        2.0000           -0.5249075             -14.2835
         6        2.0000           -0.4930116             -13.4155
         7        2.0000           -0.4541781             -12.3588
         8        2.0000           -0.4253905             -11.5755 (HOMO)
         9                          0.0347473               0.9455 (LUMO)
        10                          0.1313322               3.5737
        11                          0.2196754               5.9777
        12                          0.2921664               7.9503
      -------------------------------------------------------------
                  HL-Gap            0.4601378 Eh           12.5210 eV
             Fermi-level           -0.1953216 Eh           -5.3150 eV

     #   Z          covCN         q      C6AA      α(0)
     1   8 O        1.608    -0.571    24.505     6.681
     2   1 H        0.802     0.312     0.687     1.302
     3   1 H        0.805     0.293     0.741     1.352
     4   8 O        1.608    -0.618    25.632     6.833
     5   1 H        0.802     0.316     0.674     1.290
     6   1 H        0.805     0.268     0.825     1.427

 Mol. C6AA /au·bohr⁶  :        179.164131
 Mol. C8AA /au·bohr⁸  :       3214.409667
 Mol. α(0) /au        :         18.885857


Wiberg/Mayer (AO) data.
largest (>0.10) Wiberg bond orders for each atom

 ---------------------------------------------------------------------------
     #   Z sym  total        # sym  WBO       # sym  WBO       # sym  WBO
 ---------------------------------------------------------------------------
     1   8 O    1.883 --     3 H    0.911     2 H    0.902
     2   1 H    0.903 --     1 O    0.902
     3   1 H    0.914 --     1 O    0.911
     4   8 O    1.806 --     6 H    0.928     5 H    0.852
     5   1 H    0.900 --     4 O    0.852
     6   1 H    0.928 --     4 O    0.928
 ---------------------------------------------------------------------------

Topologies differ in total number of bonds
Writing topology from bond orders to xtbtopo.mol

molecular dipole:
                 x           y           z       tot (Debye)
 q only:        0.006       0.938       0.035
   full:       -0.020       1.181       0.035       3.004
molecular quadrupole (traceless):
                xx          xy          yy          xz          yz          zz
 q only:        0.078      -0.888      -0.123      -0.279       4.064       0.045
  q+dip:        0.109      -0.805      -0.013      -0.329       5.725      -0.096
   full:        0.093      -0.795       0.011      -0.253       5.961      -0.104


           -------------------------------------------------
          | TOTAL ENERGY              -10.155934021424 Eh   |
          | GRADIENT NORM               0.024959693923 Eh/α |
          | HOMO-LUMO GAP              12.520985724004 eV   |
           -------------------------------------------------

------------------------------------------------------------------------
 * finished run on 2022/11/17 at 10:28:24.313     
------------------------------------------------------------------------
 total:
 * wall-time:     0 d,  0 h,  0 min,  0.708 sec
 *  cpu-time:     0 d,  0 h,  0 min, 11.287 sec
 * ratio c/w:    15.948 speedup
 SCF:
 * wall-time:     0 d,  0 h,  0 min,  0.629 sec
 *  cpu-time:     0 d,  0 h,  0 min, 10.040 sec
 * ratio c/w:    15.951 speedup

